# vtk DataFile Version 3.0
vtk output
ASCII
DATASET UNSTRUCTURED_GRID
POINTS 13032 float
0.000000e+00	1.000000e+00	0.0	4.790160e-01	1.185080e+00	0.0	1.716150e+00	1.649320e+00	0.0	2.106750e+00	1.787310e+00	0.0	2.446180e+00	1.899870e+00	0.0	2.781100e+00	2.003760e+00	0.0	3.120380e+00	2.101820e+00	0.0	3.471160e+00	2.195880e+00	0.0	3.838310e+00	2.286730e+00	0.0	4.225750e+00	2.374650e+00	0.0	4.636930e+00	2.459610e+00	0.0	5.075150e+00	2.541330e+00	0.0	5.543750e+00	2.619330e+00	0.0	6.046120e+00	2.692960e+00	0.0	6.585850e+00	2.761400e+00	0.0	7.166850e+00	2.823650e+00	0.0	7.792410e+00	2.878410e+00	0.0	8.468730e+00	2.924420e+00	0.0	9.200090e+00	2.959920e+00	0.0	9.991990e+00	2.982980e+00	0.0	1.085050e+01	2.991310e+00	0.0	1.085050e+01	0.000000e+00	0.0	0.000000e+00	0.000000e+00	0.0	4.354691e-02	1.016825e+00	0.0	8.709382e-02	1.033651e+00	0.0	1.306407e-01	1.050476e+00	0.0	1.741876e-01	1.067302e+00	0.0	2.177345e-01	1.084127e+00	0.0	2.612815e-01	1.100953e+00	0.0	3.048284e-01	1.117778e+00	0.0	3.483753e-01	1.134604e+00	0.0	3.919222e-01	1.151429e+00	0.0	4.354691e-01	1.168255e+00	0.0	5.248358e-01	1.202274e+00	0.0	5.706556e-01	1.219468e+00	0.0	6.164753e-01	1.236662e+00	0.0	6.622951e-01	1.253856e+00	0.0	7.081149e-01	1.271050e+00	0.0	7.539347e-01	1.288244e+00	0.0	7.997544e-01	1.305439e+00	0.0	8.455742e-01	1.322633e+00	0.0	8.913940e-01	1.339827e+00	0.0	9.372138e-01	1.357021e+00	0.0	9.830336e-01	1.374215e+00	0.0	1.028853e+00	1.391409e+00	0.0	1.074673e+00	1.408603e+00	0.0	1.120493e+00	1.425797e+00	0.0	1.166313e+00	1.442991e+00	0.0	1.212132e+00	1.460185e+00	0.0	1.257952e+00	1.477379e+00	0.0	1.303772e+00	1.494573e+00	0.0	1.349592e+00	1.511767e+00	0.0	1.395412e+00	1.528961e+00	0.0	1.441231e+00	1.546156e+00	0.0	1.487051e+00	1.563350e+00	0.0	1.532871e+00	1.580544e+00	0.0	1.578691e+00	1.597738e+00	0.0	1.624510e+00	1.614932e+00	0.0	1.670330e+00	1.632126e+00	0.0	1.759550e+00	1.664652e+00	0.0	1.802950e+00	1.679984e+00	0.0	1.846350e+00	1.695317e+00	0.0	1.889750e+00	1.710649e+00	0.0	1.933150e+00	1.725981e+00	0.0	1.976550e+00	1.741313e+00	0.0	2.019950e+00	1.756646e+00	0.0	2.063350e+00	1.771978e+00	0.0	2.149179e+00	1.801380e+00	0.0	2.191607e+00	1.815450e+00	0.0	2.234036e+00	1.829520e+00	0.0	2.276465e+00	1.843590e+00	0.0	2.318894e+00	1.857660e+00	0.0	2.361322e+00	1.871730e+00	0.0	2.403751e+00	1.885800e+00	0.0	2.488045e+00	1.912856e+00	0.0	2.529910e+00	1.925842e+00	0.0	2.571775e+00	1.938829e+00	0.0	2.613640e+00	1.951815e+00	0.0	2.655505e+00	1.964801e+00	0.0	2.697370e+00	1.977788e+00	0.0	2.739235e+00	1.990774e+00	0.0	2.823510e+00	2.016018e+00	0.0	2.865920e+00	2.028275e+00	0.0	2.908330e+00	2.040532e+00	0.0	2.950740e+00	2.052790e+00	0.0	2.993150e+00	2.065047e+00	0.0	3.035560e+00	2.077305e+00	0.0	3.077970e+00	2.089562e+00	0.0	3.164227e+00	2.113577e+00	0.0	3.208075e+00	2.125335e+00	0.0	3.251922e+00	2.137092e+00	0.0	3.295770e+00	2.148850e+00	0.0	3.339617e+00	2.160607e+00	0.0	3.383465e+00	2.172365e+00	0.0	3.427312e+00	2.184122e+00	0.0	3.517054e+00	2.207236e+00	0.0	3.562947e+00	2.218592e+00	0.0	3.608841e+00	2.229949e+00	0.0	3.654735e+00	2.241305e+00	0.0	3.700629e+00	2.252661e+00	0.0	3.746522e+00	2.264017e+00	0.0	3.792416e+00	2.275374e+00	0.0	3.886740e+00	2.297720e+00	0.0	3.935170e+00	2.308710e+00	0.0	3.983600e+00	2.319700e+00	0.0	4.032030e+00	2.330690e+00	0.0	4.080460e+00	2.341680e+00	0.0	4.128890e+00	2.352670e+00	0.0	4.177320e+00	2.363660e+00	0.0	4.271437e+00	2.384090e+00	0.0	4.317123e+00	2.393530e+00	0.0	4.362810e+00	2.402970e+00	0.0	4.408497e+00	2.412410e+00	0.0	4.454183e+00	2.421850e+00	0.0	4.499870e+00	2.431290e+00	0.0	4.545557e+00	2.440730e+00	0.0	4.591243e+00	2.450170e+00	0.0	4.685621e+00	2.468690e+00	0.0	4.734312e+00	2.477770e+00	0.0	4.783003e+00	2.486850e+00	0.0	4.831694e+00	2.495930e+00	0.0	4.880386e+00	2.505010e+00	0.0	4.929077e+00	2.514090e+00	0.0	4.977768e+00	2.523170e+00	0.0	5.026459e+00	2.532250e+00	0.0	5.122010e+00	2.549130e+00	0.0	5.168870e+00	2.556930e+00	0.0	5.215730e+00	2.564730e+00	0.0	5.262590e+00	2.572530e+00	0.0	5.309450e+00	2.580330e+00	0.0	5.356310e+00	2.588130e+00	0.0	5.403170e+00	2.595930e+00	0.0	5.450030e+00	2.603730e+00	0.0	5.496890e+00	2.611530e+00	0.0	5.589420e+00	2.626024e+00	0.0	5.635090e+00	2.632717e+00	0.0	5.680760e+00	2.639411e+00	0.0	5.726430e+00	2.646105e+00	0.0	5.772100e+00	2.652798e+00	0.0	5.817770e+00	2.659492e+00	0.0	5.863440e+00	2.666185e+00	0.0	5.909110e+00	2.672879e+00	0.0	5.954780e+00	2.679573e+00	0.0	6.000450e+00	2.686266e+00	0.0	6.095186e+00	2.699182e+00	0.0	6.144253e+00	2.705404e+00	0.0	6.193319e+00	2.711625e+00	0.0	6.242385e+00	2.717847e+00	0.0	6.291452e+00	2.724069e+00	0.0	6.340518e+00	2.730291e+00	0.0	6.389585e+00	2.736513e+00	0.0	6.438651e+00	2.742735e+00	0.0	6.487717e+00	2.748956e+00	0.0	6.536784e+00	2.755178e+00	0.0	6.634267e+00	2.766587e+00	0.0	6.682683e+00	2.771775e+00	0.0	6.731100e+00	2.776962e+00	0.0	6.779517e+00	2.782150e+00	0.0	6.827933e+00	2.787337e+00	0.0	6.876350e+00	2.792525e+00	0.0	6.924767e+00	2.797712e+00	0.0	6.973183e+00	2.802900e+00	0.0	7.021600e+00	2.808087e+00	0.0	7.070017e+00	2.813275e+00	0.0	7.118433e+00	2.818462e+00	0.0	7.214970e+00	2.827862e+00	0.0	7.263090e+00	2.832075e+00	0.0	7.311210e+00	2.836287e+00	0.0	7.359330e+00	2.840499e+00	0.0	7.407450e+00	2.844712e+00	0.0	7.455570e+00	2.848924e+00	0.0	7.503690e+00	2.853136e+00	0.0	7.551810e+00	2.857348e+00	0.0	7.599930e+00	2.861561e+00	0.0	7.648050e+00	2.865773e+00	0.0	7.696170e+00	2.869985e+00	0.0	7.744290e+00	2.874198e+00	0.0	7.840719e+00	2.881696e+00	0.0	7.889027e+00	2.884983e+00	0.0	7.937336e+00	2.888269e+00	0.0	7.985644e+00	2.891556e+00	0.0	8.033953e+00	2.894842e+00	0.0	8.082261e+00	2.898129e+00	0.0	8.130570e+00	2.901415e+00	0.0	8.178879e+00	2.904701e+00	0.0	8.227187e+00	2.907988e+00	0.0	8.275496e+00	2.911274e+00	0.0	8.323804e+00	2.914561e+00	0.0	8.372113e+00	2.917847e+00	0.0	8.420421e+00	2.921134e+00	0.0	8.517487e+00	2.926787e+00	0.0	8.566245e+00	2.929153e+00	0.0	8.615002e+00	2.931520e+00	0.0	8.663759e+00	2.933887e+00	0.0	8.712517e+00	2.936253e+00	0.0	8.761274e+00	2.938620e+00	0.0	8.810031e+00	2.940987e+00	0.0	8.858789e+00	2.943353e+00	0.0	8.907546e+00	2.945720e+00	0.0	8.956303e+00	2.948087e+00	0.0	9.005061e+00	2.950453e+00	0.0	9.053818e+00	2.952820e+00	0.0	9.102575e+00	2.955187e+00	0.0	9.151333e+00	2.957553e+00	0.0	9.249584e+00	2.961361e+00	0.0	9.299078e+00	2.962803e+00	0.0	9.348571e+00	2.964244e+00	0.0	9.398065e+00	2.965685e+00	0.0	9.447559e+00	2.967126e+00	0.0	9.497052e+00	2.968567e+00	0.0	9.546546e+00	2.970009e+00	0.0	9.596040e+00	2.971450e+00	0.0	9.645534e+00	2.972891e+00	0.0	9.695027e+00	2.974332e+00	0.0	9.744521e+00	2.975774e+00	0.0	9.794015e+00	2.977215e+00	0.0	9.843509e+00	2.978656e+00	0.0	9.893002e+00	2.980097e+00	0.0	9.942496e+00	2.981539e+00	0.0	1.003968e+01	2.983443e+00	0.0	1.008738e+01	2.983906e+00	0.0	1.013507e+01	2.984368e+00	0.0	1.018277e+01	2.984831e+00	0.0	1.023046e+01	2.985294e+00	0.0	1.027816e+01	2.985757e+00	0.0	1.032585e+01	2.986219e+00	0.0	1.037355e+01	2.986682e+00	0.0	1.042124e+01	2.987145e+00	0.0	1.046894e+01	2.987608e+00	0.0	1.051663e+01	2.988071e+00	0.0	1.056433e+01	2.988533e+00	0.0	1.061202e+01	2.988996e+00	0.0	1.065972e+01	2.989459e+00	0.0	1.070741e+01	2.989922e+00	0.0	1.075511e+01	2.990384e+00	0.0	1.080281e+01	2.990847e+00	0.0	1.085050e+01	2.941455e+00	0.0	1.085050e+01	2.891600e+00	0.0	1.085050e+01	2.841745e+00	0.0	1.085050e+01	2.791889e+00	0.0	1.085050e+01	2.742034e+00	0.0	1.085050e+01	2.692179e+00	0.0	1.085050e+01	2.642324e+00	0.0	1.085050e+01	2.592469e+00	0.0	1.085050e+01	2.542614e+00	0.0	1.085050e+01	2.492758e+00	0.0	1.085050e+01	2.442903e+00	0.0	1.085050e+01	2.393048e+00	0.0	1.085050e+01	2.343193e+00	0.0	1.085050e+01	2.293338e+00	0.0	1.085050e+01	2.243483e+00	0.0	1.085050e+01	2.193627e+00	0.0	1.085050e+01	2.143772e+00	0.0	1.085050e+01	2.093917e+00	0.0	1.085050e+01	2.044062e+00	0.0	1.085050e+01	1.994207e+00	0.0	1.085050e+01	1.944352e+00	0.0	1.085050e+01	1.894496e+00	0.0	1.085050e+01	1.844641e+00	0.0	1.085050e+01	1.794786e+00	0.0	1.085050e+01	1.744931e+00	0.0	1.085050e+01	1.695076e+00	0.0	1.085050e+01	1.645221e+00	0.0	1.085050e+01	1.595365e+00	0.0	1.085050e+01	1.545510e+00	0.0	1.085050e+01	1.495655e+00	0.0	1.085050e+01	1.445800e+00	0.0	1.085050e+01	1.395945e+00	0.0	1.085050e+01	1.346090e+00	0.0	1.085050e+01	1.296234e+00	0.0	1.085050e+01	1.246379e+00	0.0	1.085050e+01	1.196524e+00	0.0	1.085050e+01	1.146669e+00	0.0	1.085050e+01	1.096814e+00	0.0	1.085050e+01	1.046959e+00	0.0	1.085050e+01	9.971033e-01	0.0	1.085050e+01	9.472482e-01	0.0	1.085050e+01	8.973930e-01	0.0	1.085050e+01	8.475378e-01	0.0	1.085050e+01	7.976827e-01	0.0	1.085050e+01	7.478275e-01	0.0	1.085050e+01	6.979723e-01	0.0	1.085050e+01	6.481172e-01	0.0	1.085050e+01	5.982620e-01	0.0	1.085050e+01	5.484068e-01	0.0	1.085050e+01	4.985517e-01	0.0	1.085050e+01	4.486965e-01	0.0	1.085050e+01	3.988413e-01	0.0	1.085050e+01	3.489862e-01	0.0	1.085050e+01	2.991310e-01	0.0	1.085050e+01	2.492758e-01	0.0	1.085050e+01	1.994207e-01	0.0	1.085050e+01	1.495655e-01	0.0	1.085050e+01	9.971033e-02	0.0	1.085050e+01	4.985517e-02	0.0	1.080050e+01	0.000000e+00	0.0	1.075050e+01	0.000000e+00	0.0	1.070049e+01	0.000000e+00	0.0	1.065049e+01	0.000000e+00	0.0	1.060049e+01	0.000000e+00	0.0	1.055049e+01	0.000000e+00	0.0	1.050048e+01	0.000000e+00	0.0	1.045048e+01	0.000000e+00	0.0	1.040048e+01	0.000000e+00	0.0	1.035048e+01	0.000000e+00	0.0	1.030047e+01	0.000000e+00	0.0	1.025047e+01	0.000000e+00	0.0	1.020047e+01	0.000000e+00	0.0	1.015047e+01	0.000000e+00	0.0	1.010047e+01	0.000000e+00	0.0	1.005046e+01	0.000000e+00	0.0	1.000046e+01	0.000000e+00	0.0	9.950459e+00	0.000000e+00	0.0	9.900456e+00	0.000000e+00	0.0	9.850454e+00	0.000000e+00	0.0	9.800452e+00	0.000000e+00	0.0	9.750449e+00	0.000000e+00	0.0	9.700447e+00	0.000000e+00	0.0	9.650445e+00	0.000000e+00	0.0	9.600442e+00	0.000000e+00	0.0	9.550440e+00	0.000000e+00	0.0	9.500438e+00	0.000000e+00	0.0	9.450435e+00	0.000000e+00	0.0	9.400433e+00	0.000000e+00	0.0	9.350431e+00	0.000000e+00	0.0	9.300429e+00	0.000000e+00	0.0	9.250426e+00	0.000000e+00	0.0	9.200424e+00	0.000000e+00	0.0	9.150422e+00	0.000000e+00	0.0	9.100419e+00	0.000000e+00	0.0	9.050417e+0
[...]
POINT_DATA 13032

SCALARS Density float 1
LOOKUP_TABLE default
2.667993e+00	1.875647e+00	1.719798e+00	1.652676e+00	1.598317e+00	1.536280e+00	1.483319e+00	1.420786e+00	1.358455e+00	1.311137e+00	1.251716e+00	1.198080e+00	1.154508e+00	1.103762e+00	1.055805e+00	1.011705e+00	9.686332e-01	9.294308e-01	8.919947e-01	8.637031e-01	8.330643e-01	7.663600e-01	4.196849e+00	1.883829e+00	1.774183e+00	1.799813e+00	1.825885e+00	1.843157e+00	1.853880e+00	1.857311e+00	1.859089e+00	1.859808e+00	1.859384e+00	1.894859e+00	1.898802e+00	1.898988e+00	1.897296e+00	1.894248e+00	1.892017e+00	1.888692e+00	1.884586e+00	1.879049e+00	1.872956e+00	1.867110e+00	1.860427e+00	1.853917e+00	1.846628e+00	1.838145e+00	1.828908e+00	1.818132e+00	1.805775e+00	1.796159e+00	1.785675e+00	1.774285e+00	1.762070e+00	1.749223e+00	1.735868e+00	1.721529e+00	1.705930e+00	1.743784e+00	1.738372e+00	1.722626e+00	1.704384e+00	1.687454e+00	1.671652e+00	1.656213e+00	1.640270e+00	1.676644e+00	1.661156e+00	1.648663e+00	1.632888e+00	1.616466e+00	1.600891e+00	1.585711e+00	1.618801e+00	1.611512e+00	1.594684e+00	1.577052e+00	1.559731e+00	1.541603e+00	1.525120e+00	1.558702e+00	1.544420e+00	1.534336e+00	1.520021e+00	1.503209e+00	1.488124e+00	1.472835e+00	1.500489e+00	1.492183e+00	1.475576e+00	1.457927e+00	1.441024e+00	1.424983e+00	1.409853e+00	1.437666e+00	1.429994e+00	1.413581e+00	1.396816e+00	1.381930e+00	1.368489e+00	1.354925e+00	1.375118e+00	1.372818e+00	1.361461e+00	1.346836e+00	1.331525e+00	1.316493e+00	1.302188e+00	1.329600e+00	1.326434e+00	1.313969e+00	1.298944e+00	1.283234e+00	1.268257e+00	1.254480e+00	1.241429e+00	1.269867e+00	1.266712e+00	1.255992e+00	1.242958e+00	1.230148e+00	1.217438e+00	1.204929e+00	1.190631e+00	1.215660e+00	1.214822e+00	1.207059e+00	1.197062e+00	1.186608e+00	1.176496e+00	1.164931e+00	1.155462e+00	1.146040e+00	1.170057e+00	1.170438e+00	1.163272e+00	1.153289e+00	1.142633e+00	1.132175e+00	1.122039e+00	1.112442e+00	1.102950e+00	1.092052e+00	1.121012e+00	1.120363e+00	1.112466e+00	1.100473e+00	1.090369e+00	1.080421e+00	1.071425e+00	1.062906e+00	1.054439e+00	1.046019e+00	1.073115e+00	1.072975e+00	1.067046e+00	1.058263e+00	1.048230e+00	1.038862e+00	1.030323e+00	1.022600e+00	1.015377e+00	1.008424e+00	1.001629e+00	1.028620e+00	1.030092e+00	1.025158e+00	1.016883e+00	1.007441e+00	9.986749e-01	9.908970e-01	9.839888e-01	9.790191e-01	9.720161e-01	9.646486e-01	9.577502e-01	9.868812e-01	9.888270e-01	9.835593e-01	9.764537e-01	9.687121e-01	9.619358e-01	9.542631e-01	9.469072e-01	9.406620e-01	9.354424e-01	9.300219e-01	9.238098e-01	9.174836e-01	9.464873e-01	9.459365e-01	9.420148e-01	9.369426e-01	9.318557e-01	9.264638e-01	9.204357e-01	9.144200e-01	9.088508e-01	9.038474e-01	8.985823e-01	8.919817e-01	8.869037e-01	8.826977e-01	9.102399e-01	9.141782e-01	9.108886e-01	9.061508e-01	9.004665e-01	8.951679e-01	8.892203e-01	8.836675e-01	8.789840e-01	8.752599e-01	8.713601e-01	8.668893e-01	8.624519e-01	8.588047e-01	8.536534e-01	8.852141e-01	8.867059e-01	8.838822e-01	8.807147e-01	8.770657e-01	8.733286e-01	8.692625e-01	8.652812e-01	8.614694e-01	8.580854e-01	8.547001e-01	8.503075e-01	8.468870e-01	8.442387e-01	8.404596e-01	8.370763e-01	8.342610e-01	8.345089e-01	8.353195e-01	8.349087e-01	8.337143e-01	8.313144e-01	8.271452e-01	8.217454e-01	8.164133e-01	8.115100e-01	8.073708e-01	8.038644e-01	8.007986e-01	7.978628e-01	7.949249e-01	7.923383e-01	7.895631e-01	7.868258e-01	7.843840e-01	7.822379e-01	7.800745e-01	7.781067e-01	7.762611e-01	7.745229e-01	7.730101e-01	7.716387e-01	7.703261e-01	7.691956e-01	7.681333e-01	7.672300e-01	7.664583e-01	7.657602e-01	7.651435e-01	7.646403e-01	7.642980e-01	7.640325e-01	7.638816e-01	7.638104e-01	7.637299e-01	7.636920e-01	7.638172e-01	7.639337e-01	7.641299e-01	7.643323e-01	7.644792e-01	7.646331e-01	7.649428e-01	7.650997e-01	7.650977e-01	7.652295e-01	7.654045e-01	7.655411e-01	7.656903e-01	7.657097e-01	7.658058e-01	7.657505e-01	7.658275e-01	7.659475e-01	7.659633e-01	7.660369e-01	7.662386e-01	7.657751e-01	7.652873e-01	7.647539e-01	7.643678e-01	7.640315e-01	7.636292e-01	7.630536e-01	7.626455e-01	7.622395e-01	7.617618e-01	7.612757e-01	7.609248e-01	7.604835e-01	7.599724e-01	7.594986e-01	7.590879e-01	7.586512e-01	7.581741e-01	7.577814e-01	7.572879e-01	7.567540e-01	7.563769e-01	7.559660e-01	7.554786e-01	7.550050e-01	7.545245e-01	7.538045e-01	7.533439e-01	7.529395e-01	7.525754e-01	7.521098e-01	7.515032e-01	7.510486e-01	7.505959e-01	7.500855e-01	7.495847e-01	7.490935e-01	7.485640e-01	7.480360e-01	7.474559e-01	7.469106e-01	7.464161e-01	7.459240e-01	7.454437e-01	7.449360e-01	7.444041e-01	7.438929e-01	7.433840e-01	7.428823e-01	7.423640e-01	7.418220e-01	7.412928e-01	7.408273e-01	7.404293e-01	7.398329e-01	7.394194e-01	7.389232e-01	7.384028e-01	7.379581e-01	7.375313e-01	7.371013e-01	7.366318e-01	7.362702e-01	7.359341e-01	7.356125e-01	7.353246e-01	7.350621e-01	7.348183e-01	7.346106e-01	7.344455e-01	7.343286e-01	7.342559e-01	7.342132e-01	7.342032e-01	7.342510e-01	7.343376e-01	7.344388e-01	7.346144e-01	7.349581e-01	7.352794e-01	7.356910e-01	7.361649e-01	7.366919e-01	7.372793e-01	7.382092e-01	7.386865e-01	7.394904e-01	7.400501e-01	7.408358e-01	7.420249e-01	7.429450e-01	7.440839e-01	7.453056e-01	7.465012e-01	7.475952e-01	7.492674e-01	7.505457e-01	7.518137e-01	7.532610e-01	7.549095e-01	7.565059e-01	7.580579e-01	7.598173e-01	7.618375e-01	7.634873e-01	7.651953e-01	7.671038e-01	7.689979e-01	7.707050e-01	7.726079e-01	7.745807e-01	7.765294e-01	7.784814e-01	7.804339e-01	7.824744e-01	7.847880e-01	7.873627e-01	7.891844e-01	7.911554e-01	7.932623e-01	7.959388e-01	7.987643e-01	8.010570e-01	8.037355e-01	8.062895e-01	8.090745e-01	8.139275e-01	8.168389e-01	8.196502e-01	8.223104e-01	8.259759e-01	8.311301e-01	8.353766e-01	8.399852e-01	8.450888e-01	8.497791e-01	8.571687e-01	8.635916e-01	8.699442e-01	8.760089e-01	8.824498e-01	8.897758e-01	8.976395e-01	9.069413e-01	9.189550e-01	9.278989e-01	9.358921e-01	9.460107e-01	9.597485e-01	9.706556e-01	9.819810e-01	9.949386e-01	1.009036e+00	1.024051e+00	1.040843e+00	1.056999e+00	1.071571e+00	1.086191e+00	1.108355e+00	1.124686e+00	1.142602e+00	1.160876e+00	1.183465e+00	1.203407e+00	1.233714e+00	1.258142e+00	1.280699e+00	1.304758e+00	1.331587e+00	1.363593e+00	1.392949e+00	1.423534e+00	1.456547e+00	1.491397e+00	1.526444e+00	1.563582e+00	1.604419e+00	1.640141e+00	1.676388e+00	1.718813e+00	1.765354e+00	1.812220e+00	1.862638e+00	1.915885e+00	1.970859e+00	2.020453e+00	2.074399e+00	2.131606e+00	2.192386e+00	2.258762e+00	2.325016e+00	2.391914e+00	2.457893e+00	2.532417e+00	2.602873e+00	2.671343e+00	2.741301e+00	2.845705e+00	2.942398e+00	3.022713e+00	3.114265e+00	3.210961e+00	3.306935e+00	3.401730e+00	3.494792e+00	3.585894e+00	3.674552e+00	3.759691e+00	3.839343e+00	3.912141e+00	3.977743e+00	4.036770e+00	4.089566e+00	4.134775e+00	4.171661e+00	4.199949e+00	4.199246e+00	4.199221e+00	4.196688e+00	4.191862e+00	4.187619e+00	4.184173e+00	4.180476e+00	4.179212e+00	4.177027e+00	4.168466e+00	4.153572e+00	4.138060e+00	4.122306e+00	4.098057e+00	4.061572e+00	4.010942e+00	3.922178e+00	3.707873e+00	8.839331e-01	9.200716e-01	7.476891e-01	9.641396e-01	7.526552e-01	9.728281e-01	7.426010e-01	1.009480e+00	7.387235e-01	7.667471e-01	7.359273e-01	9.188885e-01	1.037012e+00	1.095952e+00	1.148078e+00	7.345209e-01	7.403030e-01	7.358713e-01	1.055051e+00	7.476169e-01	1.182349e+00	7.574798e-01	1.243925e+00	7.699398e-01	7.840342e-01	8.904735e-01	1.301749e+00	1.215302e+00	8.006163e-01	8.225709e-01	1.355289e+00	1.408865e+00	7.636721e-01	1.469975e+00	8.738332e-01	1.520670e+00	9.333859e-01	7.755660e-01	7.560489e-01	1.000506e+00	1.586396e+00	1.633979e+00	1.094088e+00	1.668176e+00	8.678644e-01	1.215144e+00	1.365701e+00	1.703467e+00	7.640363e-01	1.564260e+00	1.772066e+00	7.882229e-01	7.588275e-01	1.806649e+00	1.836994e+00	1.338334e+00	2.067581e+00	8.437484e-01	7.451776e-01	7.503416e-01	1.093004e+00	8.654521e-01	1.871874e+00	2.377174e+00	1.893766e+00	2.724292e+00	1.862053e+00	7.648339e-01	3.170912e+00	8.026415e-01	4.113730e+00	7.609991e-01	8.674594e-01	3.542802e+00	7.346236e-01	7.405366e-01	9.423307e-01	9.966735e-01	1.398123e+00	1.461941e+00	9.301542e-01	1.053110e+00	1.008955e+00	9.656601e-01	1.191959e+00	1.145398e+00	1.874623e+00	7.653387e-01	4.147758e+00	8.193641e-01	7.628500e-01	3.964601e+00	3.874956e+00	8.547854e-01	1.245355e+00	1.520191e+00	1.150862e+00	1.045056e+00	9.631274e-01	9.031533e-01	1.457628e+00	1.682569e+00	1.286041e+00	7.626726e-01	7.529256e-01	7.380518e-01	7.429490e-01	8.125951e-01	7.777646e-01	7.908508e-01	7.349276e-01	7.370147e-01	7.647368e-01	7.697861e-01	7.541201e-01	8.957311e-01	7.811837e-01	7.574400e-01	7.634493e-01	8.800460e-01	8.988300e-01	1.733546e+00	1.804952e+00	1.890145e+00	1.279130e+00	1.121405e+00	1.704222e+00	1.569340e+00	1.598704e+00	1.635993e+00	8.555597e-01	7.655231e-01	1.946974e+00	4.170666e+00	8.338438e-01	7.641287e-01	4.061394e+00	8.451161e-01	1.350305e+00	1.314911e+00	1.095855e+00	1.079382e+00	3.719399e+00	4.061042e+00	9.267334e-01	1.023357e+00	8.094922e-01	2.994072e+00	3.359433e+00	7.962938e-01	8.863103e-01	8.610218e-01	1.409023e+00	8.340269e-01	7.503302e-01	7.450177e-01	8.063307e-01	7.950957e-01	7.661385e-01	7.736257e-01	2.573104e+00	2.241289e+00	1.964716e+00	7.345505e-01	7.353651e-01	7.395959e-01	7.378250e-01	7.436281e-01	7.415977e-01	7.349728e-01	7.461325e-01	7.368106e-01	7.723476e-01	7.487728e-01	7.513198e-01	7.619314e-01	7.639939e-01	7.601919e-01	7.551662e-01	4.141053e+00	3.717204e+00	7.642973e-01	1.236109e+00	7.651008e-01	7.656467e-01	9.093996e-01	1.046209e+00	9.316222e-01	9.666483e-01	9.529651e-01	9.851465e-01	1.004878e+00	1.853752e+00	1.883814e+00	1.165076e+00	1.380061e+00	1.299283e+00	1.138189e+00	1.437569e+00	1.498570e+00	1.863519e+00	8.727811e-01	8.617188e-01	1.468912e+00	1.194138e+00	8.908535e-01	9.212340e-01	1.540138e+00	1.145856e+00	1.043674e+00	1.000560e+00	9.596848e-01	1.191462e+00	4.176963e+00	7.650755e-01	8.368966e-01	2.367942e+00	8.384926e-01	7.656326e-01	4.150991e+00	1.302077e+00	1.304266e+00	1.314034e+00	1.299518e+00	1.305197e+00	1.289149e+00	1.292532e+00	1.277681e+00	1.282006e+00	1.268598e+00	1.274517e+00	1.261441e+00	1.267641e+00	1.254074e+00	1.259755e+00	1.245744e+00	1.251213e+00	1.237021e+00	1.242604e+00	1.228261e+00	1.233986e+00	1.219393e+00	1.224929e+00	1.210326e+00	1.214283e+00	1.205524e+00	1.197029e+00	1.192616e+00	1.184386e+00	1.179232e+00	1.169771e+00	1.165549e+00	1.155982e+00	1.151035e+00	1.141397e+00	1.136536e+00	1.126742e+00	1.121978e+00	1.132465e+00	1.111916e+00	1.107447e+00	1.097472e+00	1.093254e+00	1.083508e+00	1.079662e+00	1.069774e+00	1.066045e+00	1.055876e+00	1.052203e+00	1.059873e+00	1.042134e+00	1.038429e+00	1.028689e+00	1.024838e+00	1.015315e+00	1.011827e+00	1.021296e+00	1.008395e+00	1.017923e+00	1.004762e+00	1.014550e+00	1.001698e+00	1.011372e+00	9.993589e-01	1.008415e+00	9.957133e-01	9.854106e-01	9.823515e-01	9.923662e-01	9.793057e-01	9.890995e-01	9.768148e-01	9.861539e-01	9.746736e-01	9.833932e-01	9.716445e-01	9.804558e-01	9.688801e-01	9.775745e-01	9.661206e-01	9.572563e-01	9.547706e-01	9.634224e-01	9.523236e-01	9.608573e-01	9.499152e-01	9.583437e-01	9.475420e-01	9.558316e-01	9.451980e-01	9.533558e-01	9.428881e-01	9.348196e-01	9.327771e-01	9.406721e-01	9.309485e-01	9.385586e-01	9.287278e-01	9.363373e-01	9.262407e-01	9.340230e-01	9.242138e-01	9.318449e-01	9.220655e-01	9.142819e-01	9.122183e-01	9.199548e-01	9.101745e-01	9.178770e-01	9.082223e-01	9.158685e-01	9.063729e-01	8.988890e-01	8.972540e-01	9.046010e-01	8.956450e-01	9.028872e-01	8.940672e-01	9.012179e-01	8.924804e-01	8.995751e-01	8.909205e-01	8.839110e-01	8.824524e-01	8.894061e-01	8.809324e-01	8.878613e-01	8.793400e-01	8.863012e-01	8.778417e-01	8.847763e-01	8.764202e-01	8.695792e-01	8.683661e-01	8.750897e-01	8.671756e-01	8.737803e-01	8.660185e-01	8.725386e-01	8.648242e-01	8.713275e-01	8.636458e-01	8.572882e-01	8.562550e-01	8.624672e-01	8.551468e-01	8.612504e-01	8.539496e-01	8.600505e-01	8.527801e-01	8.589382e-01	8.517172e-01	8.457203e-01	8.448672e-01	8.506829e-01	8.438907e-01	8.496676e-01	8.428231e-01	8.486304e-01	8.418029e-01	8.475514e-01	8.408267e-01	8.353051e-01	8.344830e-01	8.398950e-01	8.336736e-01	8.390123e-01	8.328752e-01	8.381567e-01	8.321278e-01	8.270840e-01	8.264499e-01	8.314142e-01	8.257626e-01	8.306758e-01	8.250130e-01	8.299232e-01	8.243018e-01	8.292336e-01	8.236516e-01	8.188956e-01	8.183461e-01	8.230312e-01	8.178118e-01	8.224236e-01	8.172799e-01	8.218656e-01	8.167874e-01	8.124074e-01	8.119672e-01	8.163439e-01	8.115478e-01	8.159052e-01	8.111424e-01	8.154091e-01	8.107229e-01	8.149870e-01	8.103167e-01	8.062226e-01	8.058341e-01	8.099152e-01	8.054759e-01	8.095208e-01	8.051314e-01	8.091272e-01	8.048035e-01	8.009828e-01	8.007187e-01	8.045244e-01	8.005080e-01	8.043598e-01	8.003105e-01	8.039843e-01	8.000280e-01	8.036783e-01	7.997770e-01	7.962739e-01	7.960738e-01	7.995252e-01	7.958668e-01	7.992506e-01	7.956418e-01	7.989784e-01	7.954138e-01	7.922057e-01	7.920292e-01	7.951911e-01	7.918522e-01	7.949687e-01	7.916660e-01	7.947417e-01	7.914751e-01	7.885136e-01	7.883647e-01	7.912877e-01	7.882212e-01	7.911001e-01	7.880740e-01	7.909249e-01	7.879295e-01	7.852073e-01	7.850767e-01	7.877693e-01	7.849263e-01	7.875902e-01	7.847718e-01	7.874216e-01	7.846289e-01	7.820835e-01	7.819833e-01	7.844884e-01	7.818759e-01	7.843499e-01	7.817695e-01	7.842176e-01	7.816674e-01	7.793250e-01	7.792664e-01	7.815753e-01	7.792093e-01	7.814992e-01	7.791676e-01	7.814402e-01	7.791159e-01	7.769403e-01	7.768530e-01	7.790393e-01	7.767942e-01	7.789790e-01	7.746940e-01	7.746637e-01	7.726426e-01	7.726548e-01	7.707640e-01	7.708224e-01	7.690792e-01	7.691349e-01	7.674647e-01	7.675355e-01	7.691912e-01	9.247429e-01	7.659344e-01	7.660305e-01	9.696134e-01	7.645158e-01	7.644451e-01	7.646413e-01	7.632216e-01	7.633784e-01	1.002054e+00	7.620732e-01	7.622437e-01	7.610385e-01	7.612324e-01	7.624140e-01	7.601148e-01	7.603341e-01	7.593148e-01	7.590889e-01	7.595610e-01	9.416859e-01	7.586474e-01	7.589167e-01	9.640282e-01	7.580970e-01	7.583908e-01	9.922205e-01	7.576695e-01	7.579811e-01	7.586736e-01	1.117579e+00	7.573542e-01	7.576855e-01	7.571556e-01	7.568096e-01	7.575015e-01	9.459974e-01	8.793778e-01	8.545885e-01	8.390745e-01	8.215955e-01	8.350393e-01	8.198390e-01	8.077813e-01	8.932166e-01	8.078123e-01	7.971077e-01	8.617752e-01	1.005454e+00	9.922306e-01	9.956604e-01	9.824678e-01	9.857700e-01	9.728862e-01	9.761849e-01	9.634129e-01	9.668039e-01	9.540865e-01	9.575440e-01	9.449647e-01	9.485885e-01	9.611108e-01	9.523550e-01	9.646763e-01	9.559996e-01	9.683192e-01	9.598738e-01	9.722794e-01	9.640836e-01	9.767753e-01	9.685602e-01	9.813635e-01	9.731282e-01	9.861194e-01	9.779413e-01	9.909949e-01	9.829290e-01	9.961041e-01	9.882081e-01	1.001399e+00	9.936446e-01	1.006937e+00	9.994040e-01	1.012693e+00	1.005255e+00	1.018649e+00	1.026204e+00	1.032281e+00	1.039957e+00	1.046097e+00	1.038591e+00	1.052487e+00	1.060125e+00	1.066577e+00	1.074388e+00	1.080894e+00	1.073279e+00	1.087671e+00	1.095466e+00	1.102302e+00	1.110306e+00	1.117201e+00	1.109413e+00	1.124383e+00	1.116793e+00	1.131865e+00	1.124455e+00	1.139660e+00	1.132408e+00	1.147762e+00	1.155160e+00	1.163394e+00	1.156181e+00	1.171934e+00	1.164917e+00	1.180726e+00	1.173919e+00	1.189695e+00	1.182689e+00	1.199086e+00	1.192149e+00	1.208675e+00	1.201548e+00	1.218433e+00	1.170785e+00	1.215207e+00	1.211518e+00	1.228112e+00	1.221071e+00	1.237912e+00	1.231341e+00	1.247236e+00	1.239660e+00	1.257286e+00	1.264937e+00	1.275836e+00	1.268138e+00	1.286624e+00	1.279378e+00	1.296799e+00	1.288910e+00	1.307262e+00	1.282452e+00	1.298995e+00	1.317908e+00	1.309369e+00	1.328714e+00	1.336913e+00	1.348176e+00	1.339648e+00	1.359474e+00	1.350537e+00	1.371008e+00	1.361787e+00	1.382758e+00	1.373436e+00	1.394768e+00	1.385326e+00	1.406897e+00	1.397529e+00	1.418787e+00	1.355929e+00	1.409878e+00	1.430994e+00	9.361870e-01	1.422529e+00	1.443709e+00	9.330255e-01	1.403901e+00	1.175566e+00	9.084870e-01	8.900789e-01	1.435667e+00	1.456762e+00	7.570614e-01	7.574198e-01	1.449493e+00	1.470398e+00	9.248825e-01	9.215319e-01	1.452811e+00	1.464185e+00	1.484799e+00	9.562251e-01	1.211647e+00	1.480016e+00	1.500144e+00	1.506692e+00	1.521613e+00	1.516597e+00	1.537155e+00	1.534598e+00	1.553933e+00	7.570605e-01	7.574338e-01	7.577751e-01	1.553970e+00	1.572182e+00	9.131898e-01	9.099783e-01	1.574833e+00	1.591822e+00	1.279337e+00	1.597232e+00	1.613197e+00	7.571469e-01	7.575269e-01	9.753930e-01	1.255948e+00	9.020999e-01	8.989419e-01	1.352655e+00	1.529088e+00	1.622084e+00	1.636792e+00	1.649372e+00	1.662802e+00	7.572899e-01	7.568855e-01	7.576808e-01	1.679819e+00	1.690673e+00	8.912558e-01	8.882191e-01	1.591781e+00	1.711607e+00	1.721022e+00	1.401814e+00	1.746251e+00	1.753632e+00	7.574887e-01	7.578918e-01	1.675789e+00	8.808205e-01	8.779279e-01	1.783453e+00	1.788659e+00	8.839382e-01	1.823315e+00	1.826211e+00	1.865898e+00	1.866743e+00	7.577458e-01	7.581552e-01	7.582887e-01	1.792666e+00	1.460951e+00	8.712071e-01	8.682955e-01	1.912402e+00	1.910193e+00	9.993391e-01	1.961367e+00	1.957507e+00	7.585611e-01	7.586782e-01	7.584702e-01	1.581564e+00	8.619740e-01	8.590139e-01	8.655149e-01	8.562521e-01	8.628803e-01	8.536624e-01	2.013504e+00	2.009411e+00	1.951958e+00	2.003175e+00	2.065875e+00	2.057086e+00	2.127209e+00	2.118839e+00	2.190608e+00	2.180087e+00	1.021331e+00	8.603921e-01	8.512334e-01	8.448601e-01	8.425125e-01	8.489584e-01	8.403207e-01	8.468276e-01	8.382692e-01	8.448424e-01	8.363438e-01	8.429804e-01	8.345465e-01	8.282946e-01	8.265752e-01	8.328738e-01	8.249760e-01	8.313120e-01	8.234902e-01	8.298559e-01	8.221174e-01	8.161708e-01	8.149590e-01	8.208740e-01	8.137732e-01	8.197126e-01	8.126227e-01	8.186151e-01	8.115897e-01	8.175857e-01	8.106270e-01	8.049575e-01	8.041523e-01	8.097738e-01	8.034115e-01	8.089767e-01	8.027117e-01	7.975513e-01	7.969038e-01	8.020555e-01	7.962172e-01	8.014083e-01	7.954811e-01	8.007397e-01	7.948507e-01	8.000988e-01	7.945117e-01	7.996164e-01	7.941119e-01	7.893863e-01	7.889557e-01	7.937085e-01	7.885903e-01	7.933566e-01	7.882887e-01	7.838021e-01	7.835686e-01	7.880040e-01	7.833149e-01	7.877341e-01	7.830954e-01	7.874570e-01	7.828816e-01	7.872139e-01	7.826886e-01	7.869845e-01	7.825247e-01	7.784489e-01	7.783891e-01	7.824011e-01	7.783016e-01	7.822796e-01	7.782050e-01	7.744437e-01	7.743766e-01	7.780902e-01	7.743219e-01	7.779857e-01	7.742659e-01	7.778736e-01	7.741902e-01	7.777397e-01	7.741309e-01	7.776427e-01	7.740834e-01	7.707494e-01	7.707461e-01	7.740321e-01	7.707288e-01	7.739667e-01	7.707137e-01	7.676072e-01	7.676572e-01	7.707013e-01	7.676803e-01	7.706762e-01	7.676847e-01	7.706580e-01	7.676749e-01	7.648049e-01	7.648262e-01	7.676669e-01	7.648500e-01	7.676614e-01	7.648725e-01	7.676594e-01	7.648972e-01	7.622197e-01	7.622756e-01	7.649257e-01	7.623323e-01	7.649581e-01	7.623897e-01	7.649920e-01	7.624466e-01	7.599537e-01	7.600425e-01	7.625101e-01	7.601308e-01	7.625678e-01	7.602192e-01	7.626344e-01	7.603047e-01	7.626983e-01	7.603902e-01	7.580850e-01	7.581987e-01	7.604831e-01	7.583081e-01	7.605799e-01	7.584204e-01	7.562462e-01	7.563787e-01	7.585268e-01	7.565103e-01	7.586326e-01	7.566415e-01	7.587404e-01	7.567728e-01	7.588482e-01	7.569068e-01	7.589557e-01	7.570412e-01	7.551000e-01	7.552607e-01	7.571751e-01	7.554187e-01	7.573084e-01	7.555749e-01	7.574415e-01	7.557312e-01	7.539695e-01	7.541493e-01	7.558885e-01	7.543302e-01	7.560459e-01	7.545109e-01	7.562028e-01	7.546919e-01	7.531093e-01	7.533142e-01	7.548739e-01	7.535192e-01	7.550559e-01	7.537236e-01	7.552345e-01	7.539270e-01	7.525302e-01	7.527579e-01	7.541311e-01	7.529858e-01	7.543379e-01	7.532152e-01	7.545491e-01	7.534479e-01	7.522332e-01	7.524877e-01	7.536853e-01	7.527460e-01	7.516687e-01	7.519472e-01	7.539277e-01	7.509888e-01	7.512868e-01	7.544687e-01	7.576527e-01	7.708037e-01	7.504442e-01	7.507614e-01	7.790805e-01	7.912455e-01	2.258410e+00	2.247254e+00	8.095173e-01	7.500303e-01	7.503654e-01	7.510798e-01	7.507010e-01	7.496950e-01	7.514005e-01	7.510381e-01	7.517243e-01	7.513773e-01	7.507966e-01	7.511507e-01	1.942443e+00	2.331002e+00	2.320540e+00	8.365480e-01	7.588800e-01	7.588324e-01	1.231047e+00	1.222284e+00	1.236815e+00	1.227680e+00	1.242403e+00	1.233038e+00	1.248185e+00	1.238585e+00	1.254327e+00	1.244615e+00	1.229011e+00	1.234691e+00	1.219468e+00	1.250981e+00	1.240442e+00	1.257873e+00	1.247600e+00	1.264545e+00	1.254803