# vtk DataFile Version 3.0
vtk output
ASCII
DATASET UNSTRUCTURED_GRID
POINTS 218 float
1.085050e+01	0.000000e+00	0.0	0.000000e+00	0.000000e+00	0.0	1.080050e+01	0.000000e+00	0.0	1.075050e+01	0.000000e+00	0.0	1.070049e+01	0.000000e+00	0.0	1.065049e+01	0.000000e+00	0.0	1.060049e+01	0.000000e+00	0.0	1.055049e+01	0.000000e+00	0.0	1.050048e+01	0.000000e+00	0.0	1.045048e+01	0.000000e+00	0.0	1.040048e+01	0.000000e+00	0.0	1.035048e+01	0.000000e+00	0.0	1.030047e+01	0.000000e+00	0.0	1.025047e+01	0.000000e+00	0.0	1.020047e+01	0.000000e+00	0.0	1.015047e+01	0.000000e+00	0.0	1.010047e+01	0.000000e+00	0.0	1.005046e+01	0.000000e+00	0.0	1.000046e+01	0.000000e+00	0.0	9.950459e+00	0.000000e+00	0.0	9.900456e+00	0.000000e+00	0.0	9.850454e+00	0.000000e+00	0.0	9.800452e+00	0.000000e+00	0.0	9.750449e+00	0.000000e+00	0.0	9.700447e+00	0.000000e+00	0.0	9.650445e+00	0.000000e+00	0.0	9.600442e+00	0.000000e+00	0.0	9.550440e+00	0.000000e+00	0.0	9.500438e+00	0.000000e+00	0.0	9.450435e+00	0.000000e+00	0.0	9.400433e+00	0.000000e+00	0.0	9.350431e+00	0.000000e+00	0.0	9.300429e+00	0.000000e+00	0.0	9.250426e+00	0.000000e+00	0.0	9.200424e+00	0.000000e+00	0.0	9.150422e+00	0.000000e+00	0.0	9.100419e+00	0.000000e+00	0.0	9.050417e+00	0.000000e+00	0.0	9.000415e+00	0.000000e+00	0.0	8.950412e+00	0.000000e+00	0.0	8.900410e+00	0.000000e+00	0.0	8.850408e+00	0.000000e+00	0.0	8.800406e+00	0.000000e+00	0.0	8.750403e+00	0.000000e+00	0.0	8.700401e+00	0.000000e+00	0.0	8.650399e+00	0.000000e+00	0.0	8.600396e+00	0.000000e+00	0.0	8.550394e+00	0.000000e+00	0.0	8.500392e+00	0.000000e+00	0.0	8.450389e+00	0.000000e+00	0.0	8.400387e+00	0.000000e+00	0.0	8.350385e+00	0.000000e+00	0.0	8.300382e+00	0.000000e+00	0.0	8.250380e+00	0.000000e+00	0.0	8.200378e+00	0.000000e+00	0.0	8.150376e+00	0.000000e+00	0.0	8.100373e+00	0.000000e+00	0.0	8.050371e+00	0.000000e+00	0.0	8.000369e+00	0.000000e+00	0.0	7.950366e+00	0.000000e+00	0.0	7.900364e+00	0.000000e+00	0.0	7.850362e+00	0.000000e+00	0.0	7.800359e+00	0.000000e+00	0.0	7.750357e+00	0.000000e+00	0.0	7.700355e+00	0.000000e+00	0.0	7.650353e+00	0.000000e+00	0.0	7.600350e+00	0.000000e+00	0.0	7.550348e+00	0.000000e+00	0.0	7.500346e+00	0.000000e+00	0.0	7.450343e+00	0.000000e+00	0.0	7.400341e+00	0.000000e+00	0.0	7.350339e+00	0.000000e+00	0.0	7.300336e+00	0.000000e+00	0.0	7.250334e+00	0.000000e+00	0.0	7.200332e+00	0.000000e+00	0.0	7.150329e+00	0.000000e+00	0.0	7.100327e+00	0.000000e+00	0.0	7.050325e+00	0.000000e+00	0.0	7.000323e+00	0.000000e+00	0.0	6.950320e+00	0.000000e+00	0.0	6.900318e+00	0.000000e+00	0.0	6.850316e+00	0.000000e+00	0.0	6.800313e+00	0.000000e+00	0.0	6.750311e+00	0.000000e+00	0.0	6.700309e+00	0.000000e+00	0.0	6.650306e+00	0.000000e+00	0.0	6.600304e+00	0.000000e+00	0.0	6.550302e+00	0.000000e+00	0.0	6.500300e+00	0.000000e+00	0.0	6.450297e+00	0.000000e+00	0.0	6.400295e+00	0.000000e+00	0.0	6.350293e+00	0.000000e+00	0.0	6.300290e+00	0.000000e+00	0.0	6.250288e+00	0.000000e+00	0.0	6.200286e+00	0.000000e+00	0.0	6.150283e+00	0.000000e+00	0.0	6.100281e+00	0.000000e+00	0.0	6.050279e+00	0.000000e+00	0.0	6.000276e+00	0.000000e+00	0.0	5.950274e+00	0.000000e+00	0.0	5.900272e+00	0.000000e+00	0.0	5.850270e+00	0.000000e+00	0.0	5.800267e+00	0.000000e+00	0.0	5.750265e+00	0.000000e+00	0.0	5.700263e+00	0.000000e+00	0.0	5.650260e+00	0.000000e+00	0.0	5.600258e+00	0.000000e+00	0.0	5.550256e+00	0.000000e+00	0.0	5.500253e+00	0.000000e+00	0.0	5.450251e+00	0.000000e+00	0.0	5.400249e+00	0.000000e+00	0.0	5.350247e+00	0.000000e+00	0.0	5.300244e+00	0.000000e+00	0.0	5.250242e+00	0.000000e+00	0.0	5.200240e+00	0.000000e+00	0.0	5.150237e+00	0.000000e+00	0.0	5.100235e+00	0.000000e+00	0.0	5.050233e+00	0.000000e+00	0.0	5.000230e+00	0.000000e+00	0.0	4.950228e+00	0.000000e+00	0.0	4.900226e+00	0.000000e+00	0.0	4.850224e+00	0.000000e+00	0.0	4.800221e+00	0.000000e+00	0.0	4.750219e+00	0.000000e+00	0.0	4.700217e+00	0.000000e+00	0.0	4.650214e+00	0.000000e+00	0.0	4.600212e+00	0.000000e+00	0.0	4.550210e+00	0.000000e+00	0.0	4.500207e+00	0.000000e+00	0.0	4.450205e+00	0.000000e+00	0.0	4.400203e+00	0.000000e+00	0.0	4.350200e+00	0.000000e+00	0.0	4.300198e+00	0.000000e+00	0.0	4.250196e+00	0.000000e+00	0.0	4.200194e+00	0.000000e+00	0.0	4.150191e+00	0.000000e+00	0.0	4.100189e+00	0.000000e+00	0.0	4.050187e+00	0.000000e+00	0.0	4.000184e+00	0.000000e+00	0.0	3.950182e+00	0.000000e+00	0.0	3.900180e+00	0.000000e+00	0.0	3.850177e+00	0.000000e+00	0.0	3.800175e+00	0.000000e+00	0.0	3.750173e+00	0.000000e+00	0.0	3.700171e+00	0.000000e+00	0.0	3.650168e+00	0.000000e+00	0.0	3.600166e+00	0.000000e+00	0.0	3.550164e+00	0.000000e+00	0.0	3.500161e+00	0.000000e+00	0.0	3.450159e+00	0.000000e+00	0.0	3.400157e+00	0.000000e+00	0.0	3.350154e+00	0.000000e+00	0.0	3.300152e+00	0.000000e+00	0.0	3.250150e+00	0.000000e+00	0.0	3.200147e+00	0.000000e+00	0.0	3.150145e+00	0.000000e+00	0.0	3.100143e+00	0.000000e+00	0.0	3.050141e+00	0.000000e+00	0.0	3.000138e+00	0.000000e+00	0.0	2.950136e+00	0.000000e+00	0.0	2.900134e+00	0.000000e+00	0.0	2.850131e+00	0.000000e+00	0.0	2.800129e+00	0.000000e+00	0.0	2.750127e+00	0.000000e+00	0.0	2.700124e+00	0.000000e+00	0.0	2.650122e+00	0.000000e+00	0.0	2.600120e+00	0.000000e+00	0.0	2.550118e+00	0.000000e+00	0.0	2.500115e+00	0.000000e+00	0.0	2.450113e+00	0.000000e+00	0.0	2.400111e+00	0.000000e+00	0.0	2.350108e+00	0.000000e+00	0.0	2.300106e+00	0.000000e+00	0.0	2.250104e+00	0.000000e+00	0.0	2.200101e+00	0.000000e+00	0.0	2.150099e+00	0.000000e+00	0.0	2.100097e+00	0.000000e+00	0.0	2.050094e+00	0.000000e+00	0.0	2.000092e+00	0.000000e+00	0.0	1.950090e+00	0.000000e+00	0.0	1.900088e+00	0.000000e+00	0.0	1.850085e+00	0.000000e+00	0.0	1.800083e+00	0.000000e+00	0.0	1.750081e+00	0.000000e+00	0.0	1.700078e+00	0.000000e+00	0.0	1.650076e+00	0.000000e+00	0.0	1.600074e+00	0.000000e+00	0.0	1.550071e+00	0.000000e+00	0.0	1.500069e+00	0.000000e+00	0.0	1.450067e+00	0.000000e+00	0.0	1.400065e+00	0.000000e+00	0.0	1.350062e+00	0.000000e+00	0.0	1.300060e+00	0.000000e+00	0.0	1.250058e+00	0.000000e+00	0.0	1.200055e+00	0.000000e+00	0.0	1.150053e+00	0.000000e+00	0.0	1.100051e+00	0.000000e+00	0.0	1.050048e+00	0.000000e+00	0.0	1.000046e+00	0.000000e+00	0.0	9.500438e-01	0.000000e+00	0.0	9.000415e-01	0.000000e+00	0.0	8.500392e-01	0.000000e+00	0.0	8.000369e-01	0.000000e+00	0.0	7.500346e-01	0.000000e+00	0.0	7.000323e-01	0.000000e+00	0.0	6.500300e-01	0.000000e+00	0.0	6.000276e-01	0.000000e+00	0.0	5.500253e-01	0.000000e+00	0.0	5.000230e-01	0.000000e+00	0.0	4.500207e-01	0.000000e+00	0.0	4.000184e-01	0.000000e+00	0.0	3.500161e-01	0.000000e+00	0.0	3.000138e-01	0.000000e+00	0.0	2.500115e-01	0.000000e+00	0.0	2.000092e-01	0.000000e+00	0.0	1.500069e-01	0.000000e+00	0.0	1.000046e-01	0.000000e+00	0.0	5.000230e-02	0.000000e+00	0.0	
CELLS 217	651
2	2	0	2	3	2	2	4	3	2	5	4	2	6	5	2	7	6	2	8	7	2	9	8	2	10	9	2	11	10	2	12	11	2	13	12	2	14	13	2	15	14	2	16	15	2	17	16	2	18	17	2	19	18	2	20	19	2	21	20	2	22	21	2	23	22	2	24	23	2	25	24	2	26	25	2	27	26	2	28	27	2	29	28	2	30	29	2	31	30	2	32	31	2	33	32	2	34	33	2	35	34	2	36	35	2	37	36	2	38	37	2	39	38	2	40	39	2	41	40	2	42	41	2	43	42	2	44	43	2	45	44	2	46	45	2	47	46	2	48	47	2	49	48	2	50	49	2	51	50	2	52	51	2	53	52	2	54	53	2	55	54	2	56	55	2	57	56	2	58	57	2	59	58	2	60	59	2	61	60	2	62	61	2	63	62	2	64	63	2	65	64	2	66	65	2	67	66	2	68	67	2	69	68	2	70	69	2	71	70	2	72	71	2	73	72	2	74	73	2	75	74	2	76	75	2	77	76	2	78	77	2	79	78	2	80	79	2	81	80	2	82	81	2	83	82	2	84	83	2	85	84	2	86	85	2	87	86	2	88	87	2	89	88	2	90	89	2	91	90	2	92	91	2	93	92	2	94	93	2	95	94	2	96	95	2	97	96	2	98	97	2	99	98	2	100	99	2	101	100	2	102	101	2	103	102	2	104	103	2	105	104	2	106	105	2	107	106	2	108	107	2	109	108	2	110	109	2	111	110	2	112	111	2	113	112	2	114	113	2	115	114	2	116	115	2	117	116	2	118	117	2	119	118	2	120	119	2	121	120	2	122	121	2	123	122	2	124	123	2	125	124	2	126	125	2	127	126	2	128	127	2	129	128	2	130	129	2	131	130	2	132	131	2	133	132	2	134	133	2	135	134	2	136	135	2	137	136	2	138	137	2	139	138	2	140	139	2	141	140	2	142	141	2	143	142	2	144	143	2	145	144	2	146	145	2	147	146	2	148	147	2	149	148	2	150	149	2	151	150	2	152	151	2	153	152	2	154	153	2	155	154	2	156	155	2	157	156	2	158	157	2	159	158	2	160	159	2	161	160	2	162	161	2	163	162	2	164	163	2	165	164	2	166	165	2	167	166	2	168	167	2	169	168	2	170	169	2	171	170	2	172	171	2	173	172	2	174	173	2	175	174	2	176	175	2	177	176	2	178	177	2	179	178	2	180	179	2	181	180	2	182	181	2	183	182	2	184	183	2	185	184	2	186	185	2	187	186	2	188	187	2	189	188	2	190	189	2	191	190	2	192	191	2	193	192	2	194	193	2	195	194	2	196	195	2	197	196	2	198	197	2	199	198	2	200	199	2	201	200	2	202	201	2	203	202	2	204	203	2	205	204	2	206	205	2	207	206	2	208	207	2	209	208	2	210	209	2	211	210	2	212	211	2	213	212	2	214	213	2	215	214	2	216	215	2	217	216	2	1	217	
CELL_TYPES 217
3	3	3	3	3	3	3	3	3	3	3	3	3	3	3	3	3	3	3	3	3	3	3	3	3	3	3	3	3	3	3	3	3	3	3	3	3	3	3	3	3	3	3	3	3	3	3	3	3	3	3	3	3	3	3	3	3	3	3	3	3	3	3	3	3	3	3	3	3	3	3	3	3	3	3	3	3	3	3	3	3	3	3	3	3	3	3	3	3	3	3	3	3	3	3	3	3	3	3	3	3	3	3	3	3	3	3	3	3	3	3	3	3	3	3	3	3	3	3	3	3	3	3	3	3	3	3	3	3	3	3	3	3	3	3	3	3	3	3	3	3	3	3	3	3	3	3	3	3	3	3	3	3	3	3	3	3	3	3	3	3	3	3	3	3	3	3	3	3	3	3	3	3	3	3	3	3	3	3	3	3	3	3	3	3	3	3	3	3	3	3	3	3	3	3	3	3	3	3	3	3	3	3	3	3	3	3	3	3	3	3	3	3	3	3	3	3	
POINT_DATA 218

SCALARS Density float 1
LOOKUP_TABLE default
7.663600e-01	4.196849e+00	7.662386e-01	7.657751e-01	7.652873e-01	7.647539e-01	7.643678e-01	7.640315e-01	7.636292e-01	7.630536e-01	7.626455e-01	7.622395e-01	7.617618e-01	7.612757e-01	7.609248e-01	7.604835e-01	7.599724e-01	7.594986e-01	7.590879e-01	7.586512e-01	7.581741e-01	7.577814e-01	7.572879e-01	7.567540e-01	7.563769e-01	7.559660e-01	7.554786e-01	7.550050e-01	7.545245e-01	7.538045e-01	7.533439e-01	7.529395e-01	7.525754e-01	7.521098e-01	7.515032e-01	7.510486e-01	7.505959e-01	7.500855e-01	7.495847e-01	7.490935e-01	7.485640e-01	7.480360e-01	7.474559e-01	7.469106e-01	7.464161e-01	7.459240e-01	7.454437e-01	7.449360e-01	7.444041e-01	7.438929e-01	7.433840e-01	7.428823e-01	7.423640e-01	7.418220e-01	7.412928e-01	7.408273e-01	7.404293e-01	7.398329e-01	7.394194e-01	7.389232e-01	7.384028e-01	7.379581e-01	7.375313e-01	7.371013e-01	7.366318e-01	7.362702e-01	7.359341e-01	7.356125e-01	7.353246e-01	7.350621e-01	7.348183e-01	7.346106e-01	7.344455e-01	7.343286e-01	7.342559e-01	7.342132e-01	7.342032e-01	7.342510e-01	7.343376e-01	7.344388e-01	7.346144e-01	7.349581e-01	7.352794e-01	7.356910e-01	7.361649e-01	7.366919e-01	7.372793e-01	7.382092e-01	7.386865e-01	7.394904e-01	7.400501e-01	7.408358e-01	7.420249e-01	7.429450e-01	7.440839e-01	7.453056e-01	7.465012e-01	7.475952e-01	7.492674e-01	7.505457e-01	7.518137e-01	7.532610e-01	7.549095e-01	7.565059e-01	7.580579e-01	7.598173e-01	7.618375e-01	7.634873e-01	7.651953e-01	7.671038e-01	7.689979e-01	7.707050e-01	7.726079e-01	7.745807e-01	7.765294e-01	7.784814e-01	7.804339e-01	7.824744e-01	7.847880e-01	7.873627e-01	7.891844e-01	7.911554e-01	7.932623e-01	7.959388e-01	7.987643e-01	8.010570e-01	8.037355e-01	8.062895e-01	8.090745e-01	8.139275e-01	8.168389e-01	8.196502e-01	8.223104e-01	8.259759e-01	8.311301e-01	8.353766e-01	8.399852e-01	8.450888e-01	8.497791e-01	8.571687e-01	8.635916e-01	8.699442e-01	8.760089e-01	8.824498e-01	8.897758e-01	8.976395e-01	9.069413e-01	9.189550e-01	9.278989e-01	9.358921e-01	9.460107e-01	9.597485e-01	9.706556e-01	9.819810e-01	9.949386e-01	1.009036e+00	1.024051e+00	1.040843e+00	1.056999e+00	1.071571e+00	1.086191e+00	1.108355e+00	1.124686e+00	1.142602e+00	1.160876e+00	1.183465e+00	1.203407e+00	1.233714e+00	1.258142e+00	1.280699e+00	1.304758e+00	1.331587e+00	1.363593e+00	1.392949e+00	1.423534e+00	1.456547e+00	1.491397e+00	1.526444e+00	1.563582e+00	1.604419e+00	1.640141e+00	1.676388e+00	1.718813e+00	1.765354e+00	1.812220e+00	1.862638e+00	1.915885e+00	1.970859e+00	2.020453e+00	2.074399e+00	2.131606e+00	2.192386e+00	2.258762e+00	2.325016e+00	2.391914e+00	2.457893e+00	2.532417e+00	2.602873e+00	2.671343e+00	2.741301e+00	2.845705e+00	2.942398e+00	3.022713e+00	3.114265e+00	3.210961e+00	3.306935e+00	3.401730e+00	3.494792e+00	3.585894e+00	3.674552e+00	3.759691e+00	3.839343e+00	3.912141e+00	3.977743e+00	4.036770e+00	4.089566e+00	4.134775e+00	4.171661e+00	
SCALARS X-Momentum float 1
LOOKUP_TABLE default
1.565381e+03	4.732709e+03	1.565171e+03	1.564370e+03	1.563528e+03	1.562610e+03	1.561951e+03	1.561376e+03	1.560683e+03	1.559688e+03	1.558986e+03	1.558285e+03	1.557457e+03	1.556617e+03	1.556011e+03	1.555248e+03	1.554365e+03	1.553548e+03	1.552840e+03	1.552084e+03	1.551257e+03	1.550579e+03	1.549725e+03	1.548804e+03	1.548156e+03	1.547445e+03	1.546602e+03	1.545783e+03	1.544952e+03	1.543704e+03	1.542919e+03	1.542226e+03	1.541603e+03	1.540803e+03	1.539743e+03	1.538959e+03	1.538174e+03	1.537290e+03	1.536423e+03	1.535571e+03	1.534653e+03	1.533737e+03	1.532733e+03	1.531791e+03	1.530937e+03	1.530085e+03	1.529252e+03	1.528370e+03	1.527447e+03	1.526560e+03	1.525677e+03	1.524807e+03	1.523909e+03	1.522972e+03	1.522057e+03	1.521253e+03	1.520561e+03	1.519527e+03	1.518809e+03	1.517946e+03	1.517047e+03	1.516286e+03	1.515551e+03	1.514807e+03	1.513999e+03	1.513377e+03	1.512797e+03	1.512245e+03	1.511753e+03	1.511306e+03	1.510893e+03	1.510544e+03	1.510270e+03	1.510079e+03	1.509964e+03	1.509906e+03	1.509908e+03	1.510013e+03	1.510188e+03	1.510390e+03	1.510720e+03	1.511346e+03	1.511933e+03	1.512682e+03	1.513542e+03	1.514494e+03	1.515551e+03	1.517209e+03	1.518081e+03	1.519516e+03	1.520510e+03	1.521889e+03	1.524019e+03	1.525663e+03	1.527693e+03	1.529871e+03	1.532013e+03	1.533940e+03	1.536905e+03	1.539173e+03	1.541423e+03	1.543987e+03	1.546905e+03	1.549729e+03	1.552469e+03	1.555570e+03	1.559129e+03	1.562042e+03	1.565046e+03	1.568409e+03	1.571743e+03	1.574751e+03	1.578102e+03	1.581576e+03	1.585008e+03	1.588445e+03	1.591880e+03	1.595462e+03	1.599511e+03	1.604011e+03	1.607205e+03	1.610647e+03	1.614323e+03	1.619013e+03	1.623983e+03	1.627996e+03	1.632680e+03	1.637155e+03	1.642020e+03	1.650432e+03	1.655501e+03	1.660379e+03	1.664950e+03	1.671173e+03	1.680154e+03	1.687464e+03	1.695379e+03	1.704119e+03	1.712179e+03	1.724791e+03	1.735767e+03	1.746586e+03	1.756877e+03	1.767768e+03	1.780208e+03	1.793499e+03	1.809143e+03	1.829230e+03	1.844155e+03	1.857369e+03	1.873911e+03	1.896724e+03	1.914695e+03	1.933303e+03	1.954528e+03	1.977514e+03	2.001878e+03	2.028989e+03	2.054948e+03	2.078196e+03	2.101236e+03	2.135884e+03	2.161703e+03	2.189740e+03	2.217428e+03	2.252780e+03	2.283112e+03	2.328765e+03	2.365499e+03	2.399126e+03	2.434656e+03	2.473936e+03	2.520397e+03	2.562159e+03	2.605201e+03	2.651985e+03	2.700586e+03	2.748550e+03	2.798983e+03	2.854321e+03	2.900756e+03	2.946476e+03	2.999143e+03	3.059136e+03	3.116708e+03	3.177751e+03	3.242266e+03	3.305538e+03	3.362265e+03	3.423427e+03	3.485916e+03	3.550073e+03	3.619082e+03	3.687639e+03	3.755160e+03	3.815468e+03	3.882989e+03	3.947340e+03	4.004590e+03	4.061150e+03	4.143265e+03	4.214882e+03	4.273185e+03	4.335012e+03	4.395803e+03	4.451343e+03	4.501602e+03	4.546437e+03	4.586095e+03	4.620480e+03	4.649434e+03	4.672818e+03	4.691090e+03	4.705045e+03	4.715596e+03	4.723276e+03	4.728369e+03	4.731346e+03	
SCALARS Y-Momentum float 1
LOOKUP_TABLE default
-4.599957e-01	1.018813e+00	-3.917958e-01	-4.148541e-01	-4.418688e-01	-3.932254e-01	-2.955423e-01	-2.747172e-01	-3.432031e-01	-4.059576e-01	-4.131339e-01	-4.369567e-01	-4.751052e-01	-4.498183e-01	-4.184815e-01	-4.311580e-01	-4.347812e-01	-4.195591e-01	-4.020567e-01	-4.374077e-01	-4.398794e-01	-4.360509e-01	-4.607564e-01	-4.292145e-01	-4.025469e-01	-4.361200e-01	-4.656875e-01	-4.800674e-01	-5.149195e-01	-6.275183e-01	-4.258888e-01	-3.068005e-01	-2.543763e-01	-3.309713e-01	-3.798934e-01	-3.764087e-01	-3.994202e-01	-4.143777e-01	-4.263698e-01	-4.715096e-01	-5.154612e-01	-5.513938e-01	-5.517318e-01	-5.144243e-01	-4.671121e-01	-4.528754e-01	-4.471024e-01	-4.519668e-01	-4.599664e-01	-4.602629e-01	-4.602352e-01	-4.656935e-01	-4.668198e-01	-4.544798e-01	-4.324260e-01	-3.746313e-01	-3.702307e-01	-4.194640e-01	-4.425283e-01	-4.802706e-01	-4.573483e-01	-3.859788e-01	-3.687870e-01	-3.725038e-01	-3.158032e-01	-2.550734e-01	-2.253454e-01	-1.964473e-01	-1.657322e-01	-1.343437e-01	-9.842814e-02	-5.941729e-02	-2.014279e-02	1.832229e-02	6.383198e-02	1.201115e-01	1.553101e-01	1.994136e-01	2.338421e-01	2.565618e-01	3.215077e-01	4.395988e-01	4.979027e-01	5.596775e-01	6.182970e-01	6.816782e-01	7.580765e-01	9.154219e-01	7.279925e-01	6.690288e-01	5.564330e-01	7.407946e-01	9.418491e-01	1.010587e+00	1.118354e+00	1.154181e+00	1.017511e+00	1.056139e+00	1.323851e+00	1.346332e+00	1.387006e+00	1.429624e+00	1.367827e+00	1.289499e+00	1.352114e+00	1.591929e+00	1.597834e+00	1.451116e+00	1.445353e+00	1.512865e+00	1.535397e+00	1.558300e+00	1.675416e+00	1.758257e+00	1.803214e+00	1.853872e+00	1.941757e+00	2.046013e+00	2.177265e+00	2.034687e+00	1.884926e+00	1.978561e+00	2.279531e+00	2.556154e+00	2.495744e+00	2.613667e+00	2.715214e+00	2.927420e+00	3.333983e+00	4.403850e+00	3.144078e+00	2.349100e+00	2.066075e+00	2.993797e+00	3.725700e+00	4.020386e+00	4.654663e+00	4.776453e+00	4.776307e+00	5.461695e+00	5.509974e+00	5.283429e+00	5.200288e+00	5.799177e+00	6.228570e+00	6.080386e+00	6.581960e+00	7.122532e+00	6.258327e+00	5.672695e+00	7.524935e+00	8.601379e+00	8.745953e+00	9.138643e+00	9.596755e+00	9.975263e+00	1.064007e+01	1.026687e+01	9.158744e+00	8.409690e+00	8.937429e+00	1.438553e+01	1.020535e+01	9.260725e+00	1.150014e+01	1.323624e+01	1.524375e+01	2.162916e+01	1.150220e+01	1.181586e+01	1.229116e+01	1.513651e+01	1.497291e+01	1.286842e+01	1.340892e+01	1.426698e+01	1.429291e+01	1.484370e+01	1.739383e+01	1.530418e+01	1.226221e+01	1.166363e+01	1.695218e+01	1.714421e+01	1.757802e+01	1.998707e+01	1.870469e+01	1.672689e+01	1.773061e+01	1.823597e+01	1.783521e+01	1.818639e+01	1.825803e+01	1.732963e+01	1.289814e+01	1.166248e+01	1.592256e+01	1.364502e+01	1.338533e+01	1.448510e+01	2.143903e+01	1.448478e+01	1.391988e+01	1.352004e+01	1.151980e+01	9.786952e+00	8.071410e+00	6.478999e+00	4.844875e+00	3.277493e+00	1.807181e+00	6.218439e-01	-2.650165e-01	-8.871094e-01	-1.378681e+00	-1.775809e+00	-2.021224e+00	-2.729362e+00	
SCALARS Energy float 1
LOOKUP_TABLE default
2.425217e+06	1.151070e+07	2.424857e+06	2.423487e+06	2.422045e+06	2.420477e+06	2.419352e+06	2.418370e+06	2.417187e+06	2.415486e+06	2.414286e+06	2.413088e+06	2.411674e+06	2.410237e+06	2.409203e+06	2.407899e+06	2.406391e+06	2.404996e+06	2.403788e+06	2.402497e+06	2.401085e+06	2.399928e+06	2.398471e+06	2.396900e+06	2.395795e+06	2.394582e+06	2.393143e+06	2.391747e+06	2.390330e+06	2.388201e+06	2.386866e+06	2.385686e+06	2.384627e+06	2.383266e+06	2.381458e+06	2.380121e+06	2.378786e+06	2.377279e+06	2.375802e+06	2.374351e+06	2.372788e+06	2.371230e+06	2.369521e+06	2.367918e+06	2.366466e+06	2.365016e+06	2.363599e+06	2.362099e+06	2.360528e+06	2.359020e+06	2.357518e+06	2.356039e+06	2.354513e+06	2.352920e+06	2.351368e+06	2.350002e+06	2.348826e+06	2.347070e+06	2.345850e+06	2.344385e+06	2.342859e+06	2.341569e+06	2.340323e+06	2.339062e+06	2.337692e+06	2.336638e+06	2.335656e+06	2.334719e+06	2.333887e+06	2.333132e+06	2.332433e+06	2.331844e+06	2.331383e+06	2.331061e+06	2.330869e+06	2.330774e+06	2.330782e+06	2.330964e+06	2.331266e+06	2.331615e+06	2.332180e+06	2.333248e+06	2.334251e+06	2.335528e+06	2.336994e+06	2.338618e+06	2.340419e+06	2.343240e+06	2.344731e+06	2.347174e+06	2.348863e+06	2.351207e+06	2.354839e+06	2.357641e+06	2.361102e+06	2.364818e+06	2.368472e+06	2.371754e+06	2.376814e+06	2.380685e+06	2.384526e+06	2.388904e+06	2.393888e+06	2.398711e+06	2.403392e+06	2.408694e+06	2.414783e+06	2.419766e+06	2.424905e+06	2.430666e+06	2.436378e+06	2.441535e+06	2.447283e+06	2.453243e+06	2.459134e+06	2.465037e+06	2.470939e+06	2.477096e+06	2.484055e+06	2.491791e+06	2.497286e+06	2.503208e+06	2.509539e+06	2.517629e+06	2.526210e+06	2.533138e+06	2.541227e+06	2.548960e+06	2.557373e+06	2.571929e+06	2.580688e+06	2.589128e+06	2.597030e+06	2.607795e+06	2.623417e+06	2.636116e+06	2.649881e+06	2.665085e+06	2.679133e+06	2.701143e+06	2.720327e+06	2.739256e+06	2.757284e+06	2.776400e+06	2.798282e+06	2.821675e+06	2.849263e+06	2.884783e+06	2.911213e+06	2.934636e+06	2.964043e+06	3.004796e+06	3.036951e+06	3.070338e+06	3.108530e+06	3.150013e+06	3.194137e+06	3.243387e+06	3.290707e+06	3.333233e+06	3.375531e+06	3.439523e+06	3.487274e+06	3.539414e+06	3.591132e+06	3.657562e+06	3.714825e+06	3.801649e+06	3.871583e+06	3.936245e+06	4.004952e+06	4.081445e+06	4.172525e+06	4.255046e+06	4.340853e+06	4.434733e+06	4.533163e+06	4.631289e+06	4.735431e+06	4.850623e+06	4.948702e+06	5.046668e+06	5.161007e+06	5.291437e+06	5.419193e+06	5.556573e+06	5.703301e+06	5.850903e+06	5.985009e+06	6.131546e+06	6.284849e+06	6.446121e+06	6.622844e+06	6.801044e+06	6.980704e+06	7.150497e+06	7.344220e+06	7.530849e+06	7.706760e+06	7.886287e+06	8.155539e+06	8.403480e+06	8.611416e+06	8.845816e+06	9.091703e+06	9.333933e+06	9.571660e+06	9.803591e+06	1.002948e+07	1.024808e+07	1.045676e+07	1.065089e+07	1.082750e+07	1.098609e+07	1.112842e+07	1.125527e+07	1.136339e+07	1.145111e+07	
SCALARS Pressure float 1
LOOKUP_TABLE default
3.305913e+05	3.536880e+06	3.305176e+05	3.302371e+05	3.299420e+05	3.296192e+05	3.293854e+05	3.291820e+05	3.289390e+05	3.285912e+05	3.283445e+05	3.280992e+05	3.278107e+05	3.275173e+05	3.273054e+05	3.270391e+05	3.267307e+05	3.264448e+05	3.261970e+05	3.259338e+05	3.256463e+05	3.254095e+05	3.251122e+05	3.247905e+05	3.245632e+05	3.243158e+05	3.240224e+05	3.237372e+05	3.234480e+05	3.230152e+05	3.227378e+05	3.224944e+05	3.222754e+05	3.219959e+05	3.216318e+05	3.213587e+05	3.210870e+05	3.207807e+05	3.204802e+05	3.201856e+05	3.198681e+05	3.195516e+05	3.192039e+05	3.188769e+05	3.185805e+05	3.182857e+05	3.179981e+05	3.176942e+05	3.173759e+05	3.170700e+05	3.167656e+05	3.164656e+05	3.161556e+05	3.158314e+05	3.155150e+05	3.152366e+05	3.149991e+05	3.146431e+05	3.143964e+05	3.141003e+05	3.137896e+05	3.135239e+05	3.132692e+05	3.130127e+05	3.127327e+05	3.125170e+05	3.123166e+05	3.121247e+05	3.119527e+05	3.117959e+05	3.116502e+05	3.115259e+05	3.114269e+05	3.113568e+05	3.113129e+05	3.112866e+05	3.112796e+05	3.113069e+05	3.113571e+05	3.114158e+05	3.115189e+05	3.117219e+05	3.119114e+05	3.121546e+05	3.124347e+05	3.127464e+05	3.130941e+05	3.136453e+05	3.139278e+05	3.144046e+05	3.147362e+05	3.152030e+05	3.159099e+05	3.164564e+05	3.171337e+05	3.178605e+05	3.185718e+05	3.192241e+05	3.202222e+05	3.209850e+05	3.217425e+05	3.226078e+05	3.235937e+05	3.245491e+05	3.254792e+05	3.265352e+05	3.277488e+05	3.287400e+05	3.297676e+05	3.309168e+05	3.320584e+05	3.330879e+05	3.342370e+05	3.354291e+05	3.366075e+05	3.377889e+05	3.389716e+05	3.402090e+05	3.416138e+05	3.431787e+05	3.442860e+05	3.454862e+05	3.467711e+05	3.484056e+05	3.501326e+05	3.515349e+05	3.531750e+05	3.547400e+05	3.564494e+05	3.594374e+05	3.612269e+05	3.629579e+05	3.645989e+05	3.668686e+05	3.700677e+05	3.727057e+05	3.755753e+05	3.787585e+05	3.816900e+05	3.863271e+05	3.903661e+05	3.943721e+05	3.982079e+05	4.022961e+05	4.069581e+05	4.119736e+05	4.179296e+05	4.256661e+05	4.314424e+05	4.366218e+05	4.432155e+05	4.522143e+05	4.593870e+05	4.668690e+05	4.754708e+05	4.848770e+05	4.949537e+05	5.062842e+05	5.172483e+05	5.271932e+05	5.372296e+05	5.525697e+05	5.639109e+05	5.764454e+05	5.893137e+05	6.053409e+05	6.195839e+05	6.414259e+05	6.591123e+05	6.756224e+05	6.933520e+05	7.132853e+05	7.372617e+05	7.594393e+05	7.827636e+05	8.081534e+05	8.352064e+05	8.626667e+05	8.920363e+05	9.246315e+05	9.534065e+05	9.828858e+05	1.017734e+06	1.056322e+06	1.095602e+06	1.138307e+06	1.183901e+06	1.231519e+06	1.274934e+06	1.322635e+06	1.373773e+06	1.428711e+06	1.489380e+06	1.550621e+06	1.613193e+06	1.675612e+06	1.746900e+06	1.815072e+06	1.882041e+06	1.951206e+06	2.055689e+06	2.153843e+06	2.236360e+06	2.331459e+06	2.433103e+06	2.535210e+06	2.637241e+06	2.738526e+06	2.838736e+06	2.937249e+06	3.032758e+06	3.122909e+06	3.205973e+06	3.281372e+06	3.349651e+06	3.411071e+06	3.463921e+06	3.507220e+06	
SCALARS Temperature float 1
LOOKUP_TABLE default
1.498519e+03	2.927525e+03	1.498422e+03	1.498057e+03	1.497672e+03	1.497250e+03	1.496944e+03	1.496678e+03	1.496361e+03	1.495907e+03	1.495583e+03	1.495262e+03	1.494884e+03	1.494500e+03	1.494222e+03	1.493872e+03	1.493467e+03	1.493091e+03	1.492765e+03	1.492419e+03	1.492041e+03	1.491729e+03	1.491337e+03	1.490913e+03	1.490612e+03	1.490286e+03	1.489898e+03	1.489520e+03	1.489137e+03	1.488565e+03	1.488196e+03	1.487872e+03	1.487581e+03	1.487211e+03	1.486728e+03	1.486366e+03	1.486005e+03	1.485597e+03	1.485197e+03	1.484805e+03	1.484382e+03	1.483960e+03	1.483495e+03	1.483058e+03	1.482661e+03	1.482266e+03	1.481881e+03	1.481474e+03	1.481047e+03	1.480636e+03	1.480227e+03	1.479824e+03	1.479406e+03	1.478970e+03	1.478542e+03	1.478166e+03	1.477846e+03	1.477366e+03	1.477033e+03	1.476633e+03	1.476213e+03	1.475851e+03	1.475505e+03	1.475157e+03	1.474777e+03	1.474484e+03	1.474211e+03	1.473949e+03	1.473714e+03	1.473500e+03	1.473300e+03	1.473128e+03	1.472991e+03	1.472894e+03	1.472832e+03	1.472794e+03	1.472781e+03	1.472814e+03	1.472877e+03	1.472952e+03	1.473087e+03	1.473358e+03	1.473610e+03	1.473933e+03	1.474306e+03	1.474721e+03	1.475185e+03	1.475921e+03	1.476295e+03	1.476930e+03	1.477370e+03	1.477992e+03	1.478932e+03	1.479656e+03	1.480553e+03	1.481514e+03	1.482451e+03	1.483313e+03	1.484630e+03	1.485632e+03	1.486627e+03	1.487760e+03	1.489048e+03	1.490293e+03	1.491504e+03	1.492878e+03	1.494453e+03	1.495734e+03	1.497060e+03	1.498540e+03	1.500005e+03	1.501324e+03	1.502792e+03	1.504311e+03	1.505808e+03	1.507303e+03	1.508797e+03	1.510356e+03	1.512121e+03	1.514081e+03	1.515460e+03	1.516954e+03	1.518552e+03	1.520579e+03	1.522711e+03	1.524434e+03	1.526442e+03	1.528350e+03	1.530428e+03	1.534056e+03	1.536198e+03	1.538266e+03	1.540222e+03	1.542932e+03	1.546735e+03	1.549842e+03	1.553206e+03	1.556911e+03	1.560301e+03	1.565642e+03	1.570244e+03	1.574775e+03	1.579083e+03	1.583651e+03	1.588813e+03	1.594303e+03	1.600765e+03	1.609083e+03	1.615198e+03	1.620628e+03	1.627506e+03	1.636780e+03	1.644058e+03	1.651565e+03	1.660088e+03	1.669278e+03	1.678984e+03	1.689712e+03	1.699918e+03	1.709040e+03	1.718135e+03	1.731857e+03	1.741738e+03	1.752535e+03	1.763455e+03	1.776840e+03	1.788510e+03	1.806074e+03	1.819841e+03	1.832569e+03	1.845982e+03	1.860790e+03	1.878194e+03	1.893919e+03	1.910145e+03	1.927404e+03	1.945379e+03	1.963205e+03	1.981826e+03	2.001956e+03	2.019298e+03	2.036724e+03	2.056881e+03	2.078587e+03	2.100127e+03	2.122924e+03	2.146593e+03	2.170646e+03	2.192009e+03	2.214885e+03	2.238781e+03	2.263763e+03	2.290543e+03	2.316772e+03	2.342849e+03	2.368177e+03	2.396274e+03	2.422392e+03	2.447389e+03	2.472579e+03	2.509406e+03	2.542824e+03	2.570091e+03	2.600614e+03	2.632261e+03	2.663127e+03	2.693107e+03	2.722069e+03	2.749991e+03	2.776771e+03	2.802136e+03	2.825570e+03	2.846748e+03	2.865644e+03	2.882499e+03	2.897458e+03	2.910179e+03	2.920502e+03	
SCALARS Pressure_Coefficient float 1
LOOKUP_TABLE default
-1.300860e+00	-6.223193e-02	-1.300889e+00	-1.300997e+00	-1.301111e+00	-1.301236e+00	-1.301326e+00	-1.301404e+00	-1.301498e+00	-1.301633e+00	-1.301728e+00	-1.301823e+00	-1.301934e+00	-1.302048e+00	-1.302129e+00	-1.302232e+00	-1.302351e+00	-1.302462e+00	-1.302558e+00	-1.302659e+00	-1.302770e+00	-1.302862e+00	-1.302977e+00	-1.303101e+00	-1.303189e+00	-1.303284e+00	-1.303398e+00	-1.303508e+00	-1.303620e+00	-1.303787e+00	-1.303894e+00	-1.303988e+00	-1.304073e+00	-1.304181e+00	-1.304321e+00	-1.304427e+00	-1.304532e+00	-1.304650e+00	-1.304766e+00	-1.304880e+00	-1.305003e+00	-1.305125e+00	-1.305259e+00	-1.305385e+00	-1.305500e+00	-1.305614e+00	-1.305725e+00	-1.305842e+00	-1.305965e+00	-1.306083e+00	-1.306201e+00	-1.306317e+00	-1.306437e+00	-1.306562e+00	-1.306684e+00	-1.306792e+00	-1.306883e+00	-1.307021e+00	-1.307116e+00	-1.307231e+00	-1.307351e+00	-1.307453e+00	-1.307552e+00	-1.307651e+00	-1.307759e+00	-1.307842e+00	-1.307920e+00	-1.307994e+00	-1.308060e+00	-1.308121e+00	-1.308177e+00	-1.308225e+00	-1.308263e+00	-1.308291e+00	-1.308307e+00	-1.308318e+00	-1.308320e+00	-1.308310e+00	-1.308290e+00	-1.308268e+00	-1.308228e+00	-1.308150e+00	-1.308076e+00	-1.307982e+00	-1.307874e+00	-1.307754e+00	-1.307619e+00	-1.307406e+00	-1.307297e+00	-1.307113e+00	-1.306985e+00	-1.306805e+00	-1.306532e+00	-1.306321e+00	-1.306059e+00	-1.305778e+00	-1.305503e+00	-1.305251e+00	-1.304866e+00	-1.304571e+00	-1.304278e+00	-1.303944e+00	-1.303563e+00	-1.303194e+00	-1.302835e+00	-1.302427e+00	-1.301958e+00	-1.301575e+00	-1.301178e+00	-1.300734e+00	-1.300293e+00	-1.299896e+00	-1.299452e+00	-1.298991e+00	-1.298536e+00	-1.298080e+00	-1.297623e+00	-1.297145e+00	-1.296602e+00	-1.295997e+00	-1.295570e+00	-1.295106e+00	-1.294610e+00	-1.293978e+00	-1.293311e+00	-1.292769e+00	-1.292136e+00	-1.291531e+00	-1.290871e+00	-1.289716e+00	-1.289025e+00	-1.288356e+00	-1.287722e+00	-1.286846e+00	-1.285610e+00	-1.284591e+00	-1.283482e+00	-1.282252e+00	-1.281120e+00	-1.279329e+00	-1.277768e+00	-1.276221e+00	-1.274739e+00	-1.273160e+00	-1.271359e+00	-1.269421e+00	-1.267120e+00	-1.264131e+00	-1.261900e+00	-1.259899e+00	-1.257352e+00	-1.253876e+00	-1.251105e+00	-1.248214e+00	-1.244891e+00	-1.241258e+00	-1.237365e+00	-1.232988e+00	-1.228752e+00	-1.224910e+00	-1.221033e+00	-1.215107e+00	-1.210726e+00	-1.205884e+00	-1.200912e+00	-1.194721e+00	-1.189219e+00	-1.180781e+00	-1.173948e+00	-1.167570e+00	-1.160721e+00	-1.153021e+00	-1.143758e+00	-1.135191e+00	-1.126180e+00	-1.116372e+00	-1.105921e+00	-1.095313e+00	-1.083967e+00	-1.071375e+00	-1.060259e+00	-1.048871e+00	-1.035409e+00	-1.020501e+00	-1.005327e+00	-9.888298e-01	-9.712160e-01	-9.528209e-01	-9.360492e-01	-9.176215e-01	-8.978664e-01	-8.766433e-01	-8.532061e-01	-8.295478e-01	-8.053755e-01	-7.812621e-01	-7.537227e-01	-7.273873e-01	-7.015164e-01	-6.747968e-01	-6.344341e-01	-5.965158e-01	-5.646385e-01	-5.279005e-01	-4.886345e-01	-4.491893e-01	-4.097732e-01	-3.706458e-01	-3.319334e-01	-2.938765e-01	-2.569805e-01	-2.221539e-01	-1.900655e-01	-1.609380e-01	-1.345607e-01	-1.108337e-01	-9.041692e-02	-7.369015e-02	
SCALARS Mach float 1
LOOKUP_TABLE default